TITLE=RKDG
VARIABLES=X , Y , rho , u , v , p, Ma , FLAG
ZONE T= T1 N= 4767 , E= 9340 , ZONETYPE=FETRIANGLE
DATAPACKING=BLOCK
VARLOCATION=([1-2]=NODAL,[3-8]=CELLCENTERED)
DT=(SINGLE SINGLE SINGLE SINGLE SINGLE SINGLE SINGLE SINGLE)
0.0009853  
0.0049224  0.012766  0.0205484  0.0282699  0.0359311  0.0435324  
0.0510744  0.0585574  0.065982  0.0807152  0.0952181  0.109494  
0.123548  0.137381  0.150999  0.177809  0.20378  0.22894  
0.253314  0.276926  0.299801  0.32196  0.343427  0.364223  
0.38437  0.403886  0.422793  0.441109  0.458853  0.476042  
0.492694  0.508825  0.524453  0.539592  0.554258  0.568466  
0.582229  0.595563  0.60848  0.620993  0.633115  0.656602  
0.678621  0.699264  0.718616  0.736759  0.753768  0.769714  
0.784664  0.798679  0.811818  0.824136  0.835684  0.857336  
0.876282  0.89286  0.907366  0.920058  0.931164  0.950599  
0.965175  0.976107  0.992506  1.0089  0.992506  0.976107  
0.965175  0.950599  0.931164  0.920058  0.907366  0.89286  
0.876282  0.857336  0.835684  0.824136  0.811818  0.798679  
0.784664  0.769714  0.753768  0.736759  0.718616  0.699264  
0.678621  0.656602  0.633115  0.620993  0.60848  0.595563  
0.582229  0.568466  0.554258  0.539592  0.524453  0.508825  
0.492694  0.476042  0.458853  0.441109  0.422793  0.403886  
0.38437  0.364223  0.343427  0.32196  0.299801  0.276926  
0.253314  0.22894  0.20378  0.177809  0.150999  0.137381  
0.123548  0.109494  0.0952181  0.0807152  0.065982  0.0585574  
0.0510744  0.0435324  0.0359311  0.0282699  0.0205484  0.012766  
0.0049224  0.0009853  0  -16  -14  -12  
-10  -8  -6  -4  -2  0  
2  4  6  8  10  12  
14  16  16  16  16  16  
16  16  16  16  16  16  
16  16  16  16  16  16  
14  12  10  8  6  4  
2  0  -2  -4  -6  -8  
-10  -12  -14  -16  -16  -16  
-16  -16  -16  -16  -16  -16  
-16  -16  -16  -16  -16  -16  
-16  -0.00419464  -0.00456519  -0.00484335  -0.00969879  -0.00279652  
-0.00965873  -0.00235639  -0.00911274  -0.00864132  -0.00808512  -0.015287  
-0.014829  0.0446232  0.0448095  -0.0154074  -0.014652  -0.00131942  
0.000109734  0.0371233  0.0368666  0.0523829  0.0525151  0.0059624  
0.00480928  -0.00669552  -0.0135007  -0.0137567  0.0291654  0.0295032  
0.0147484  0.0150629  0.0218244  0.0222243  0.00896524  0.00753689  
0.04619  0.0458813  -0.0204588  -0.00692059  -0.020427  -0.0212602  
-0.0213763  -0.0216317  0.0602802  0.0603742  0.000115489  0.0383994  
0.0379656  -0.0115917  0.00302538  -0.0195955  0.0540714  0.053852  
-0.00423645  -0.0188626  0.0305358  0.0299411  0.0221168  0.022902  
0.0170253  0.0160567  -0.0128868  -0.0261515  0.00828964  0.010239  
-0.0263406  0.0474349  0.0470565  -0.0273867  -0.0169766  -0.0276867  
-0.0281859  -0.0283083  -0.00565178  0.00218122  0.0398743  0.0393441  
-0.00933145  -0.0252494  0.0684248  0.0684953  0.0624622  0.0626194  
0.031815  0.0310626  -0.0243792  -0.0191287  0.0550007  0.0552763  
-0.000993379  0.0234135  0.0223891  0.0132451  0.0146468  -0.0309098  
-0.0221658  -0.0123373  -0.0324044  -0.0333494  0.0727723  0.0727435  
-0.0343042  -0.0349458  0.00491017  -0.0353814  0.0472566  0.0476832  
-0.0155793  -0.0356063  0.0409249  0.0414754  -0.0247695  -0.00413774  
-0.0295536  -0.0309881  0.0758998  0.0758501  0.0338731  0.0330769  
0.00289431  -0.00667893  0.0733299  0.0732198  0.0247197  0.0235507  
-0.0199981  0.0639655  0.064169  -0.0386709  0.0553529  0.0556644  
-0.0388312  0.0143063  0.0157774  -0.024373  -0.0411776  -0.028523  
0.00815863  0.00654144  -0.0353396  -0.0122973  -0.0418838  -0.0428294  
-0.0432663  -0.0435476  -0.0376679  -0.0140116  0.0473134  0.0477477  
0.0841948  0.084144  0.0384645  0.0378025  -0.0017181  -0.00313831  
-0.0452792  0.0268137  0.0256546  -0.0474818  -0.03202  0.0165323  
0.0146822  -0.0347481  -0.0482442  -0.0229922  0.00529836  0.00709188  
0.0547118  0.0543705  0.0737434  0.0735759  0.0643909  0.0641463  
-0.0495178  0.999477  1.00163  -0.0421277  -0.0219808  0.98209  
0.980973  -0.0505788  -0.0513646  -0.0454148  -0.05195  0.970815  
0.970067  -0.0126768  -0.052216  0.0842096  0.0841033  1.00835  
1.01125  0.95967  0.959301  0.98917  0.991861  -0.0123946  
0.93875  0.938716  -0.0520093  1.01585  0.0417088  0.0421915  
0.92711  0.927064  -0.0391534  0.914328  0.914429  -0.0426575  
-0.0552276  0.949043  0.948807  -0.0557675  0.901061  0.901162  
0.0293994  0.0285462  1.0216  1.01844  -0.0576164  -0.0312137  
0.095814  0.0957585  0.889155  0.889218  -0.00318545  -0.00374429  
-0.0291493  0.0178068  0.0161305  0.868895  0.868969  0.99836  
1.00354  -0.048922  1.01574  -0.0584657  -0.0215317  0.846191  
0.845999  0.00301024  0.00688283  0.979103  0.976963  -0.059855  
-0.0540855  0.834007  0.833763  0.820849  0.820593  0.0529484  
0.0533076  0.881136  0.881167  0.806918  0.806692  -0.0199869  
0.962682  0.961822  0.858057  0.0646836  0.0649701  0.792328  
0.792152  0.85831  -0.0607351  0.0832874  0.0831155  0.93587  
0.935883  0.0731092  0.0728912  1.00885  -0.0613735  0.777188  
0.777061  -0.0617189  1.0263  0.761658  0.761573  -0.0514595  
-0.059264  1.02739  -0.0457653  0.746233  0.74618  -0.0144042  
0.732947  0.732914  -0.0115952  0.711926  0.711909  0.922207  
0.922405  0.98661  0.992152  0.89446  0.894639  0.689842  
0.689842  0.908223  0.90848  0.0949276  0.0948085  -0.0611507  
-0.0389386  0.666767  0.666754  0.643089  0.643105  -0.065205  
0.630545  0.630522  -0.0369092  0.617625  0.617594  -0.0638524  
0.604427  0.604468  -0.0646595  -0.0263966  0.0307928  0.0312597  
0.87167  0.871826  0.0404148  0.040065  0.845196  0.845669  
0.946472  0.946643  -0.0661213  0.59102  0.591075  1.02195  
-0.0551414  0.72446  0.7245  0.701954  0.701966  1.02064  
-0.0682838  0.678438  0.678427  0.0190551  0.0197935  0.654294  
0.65427  1.00836  1.03031  -0.00437377  1.03272  -0.0248668  
0.577274  0.577344  0.974876  0.973004  0.117652  0.1176  
0.106868  0.10679  0.99748  0.00569203  0.00733226  0.831022  
0.831586  -0.0612095  0.816701  0.816176  -0.0697828  0.801199  
0.800778  -0.0708443  0.0651426  0.0647836  0.785379  0.78507  
0.769424  0.769212  0.563096  0.563187  0.753647  0.753512  
0.738637  0.738557  -0.0652172  0.886191  0.886349  1.03377  
1.03456  0.931753  0.931489  -0.0486552  -0.0718026  0.129857  
0.12979  -0.0721175  0.859962  0.859315  0.548455  0.548571  
-0.0478461  0.0524276  0.0520038  1.00947  0.958021  0.958508  
0.715253  0.715292  0.690949  0.690946  0.641004  0.640963  
0.665875  0.665906  0.90105  0.901502  -0.0730336  1.03849  
0.91627  0.916764  0.0789191  0.0791942  1.03731  0.533341  
0.533487  0.0945987  0.0943944  -0.00554543  -0.0183065  -0.0745284  
-0.0629334  -0.0339715  0.144938  0.145012  1.00093  -0.0763786  
0.984465  0.986095  1.02971  0.627483  0.627422  0.613853  
0.613772  0.600192  0.600296  -0.0762645  -0.0177496  0.517743  
0.517923  0.104845  0.104701  1.02255  1.01547  -0.0338536  
1.04377  0.844086  0.843117  0.729595  0.729511  0.586638  
0.586503  0.876324  0.876505  0.942464  0.942196  0.501649  
0.501866  0.0244844  0.0244637  0.118519  0.118386  -0.0789346  
0.159916  0.159989  0.0388287  0.0383471  -0.0802686  0.652441  
0.652384  0.704519  0.70454  -0.0756083  0.678552  0.572568  
0.572394  0.67858  0.970511  0.969948  0.744923  0.744769  
-0.00462338  0.761049  0.760792  -0.0577609  0.485034  0.485285  
-0.0715465  0.00854834  0.0637212  0.0632418  0.0084376  0.828347  
0.827384  0.777293  0.777689  0.811447  0.810678  0.793974  
0.794543  1.0438  1.04478  -0.0591631  0.996808  0.558013  
0.557791  -0.0824904  -0.0829811  0.892275  0.892868  0.467863  
0.468141  -0.00717791  0.92649  0.925725  0.171179  0.171328  
1.03665  0.187101  0.18697  0.542991  0.54271  -0.0838108  
1.04668  -0.0435644  0.85441  0.450111  0.450396  0.137059  
0.136886  1.04819  0.855894  0.638254  0.638164  0.99509  
0.908955  0.909958  0.866574  0.954259  0.953996  -0.0737036  
0.867639  0.0772838  0.0768544  -0.0286931  0.71918  0.719248  
1.03858  0.154812  0.15465  0.664925  0.664992  -0.0467529  
1.0101  -0.0854603  0.527139  0.527488  0.0531789  0.0525559  
0.43176  0.432019  0.692398  0.692387  1.00804  -0.088372  
-0.0235303  1.02334  0.609497  0.609655  0.623612  0.623737  
0.982643  0.982699  -0.01568  1.05254  0.215045  0.214838  
0.199739  0.199487  -0.0897291  0.511086  0.511511  0.596054  
0.596256  -0.0882111  0.412797  0.41299  1.05178  -0.0895588  
-0.0681614  0.109369  0.109137  0.734999  0.734854  0.0960455  
0.0956887  0.843257  0.841514  -0.0890079  0.393211  0.393296  
0.494532  0.495036  0.582212  0.582473  -0.0890515  1.02417  
0.881284  0.881298  1.05396  0.751666  0.751402  0.937681  
0.936737  0.242915  0.243179  -0.0693073  1.05875  0.769028  
0.768595  0.65031  0.650193  0.373004  0.372959  -0.0817927  
0.786174  0.78683  -0.0385199  -0.0937933  0.477421  0.477995  
0.182852  0.182563  0.228881  0.229245  0.567613  0.567945  
-0.0939708  0.803936  0.804873  0.0229552  0.0236809  0.821932  
0.823211  0.966655  0.967048  -0.00518091  0.0114836  0.0388185  
0.037912  0.00880309  -0.0539684  0.707407  0.707437  0.67881  
0.678871  0.352215  0.352047  1.06037  0.12405  0.12381  
0.270791  0.271031  0.460318  0.459698  -0.0535377  1.0587  
0.861659  0.553013  0.552592  0.864714  0.899779  0.901868  
-0.0966327  0.0706204  0.0699576  -0.0966212  0.920277  0.9187  
0.165425  0.165132  -0.00237218  0.330962  0.330707  1.03886  
1.06382  0.996293  0.150098  0.149826  -0.038974  -0.0860221  
1.04792  0.258579  0.258982  0.441342  0.441953  0.288357  
0.288636  0.309521  0.309231  0.537565  0.53704  -0.015406  
-0.0215783  0.997349  0.213501  0.213042  0.634708  0.63453  
-0.0781646  -0.0958008  0.422349  0.422868  1.01557  1.03212  
0.723666  0.72356  0.9502  0.949213  -0.105571  0.520992  
0.521636  -0.100265  0.663832  0.663964  0.137128  0.136791  
1.01079  0.402708  0.403037  0.618432  0.61867  0.60508  
0.605346  -0.0285251  -0.10344  0.0547009  0.0537835  -0.105686  
0.0890551  0.0884934  0.694095  0.694127  0.505284  0.504511  
-0.104527  0.740959  0.740728  -0.103551  0.98094  0.980148  
0.593014  0.593375  -0.0807977  1.06167  0.19565  0.196148  
0.382413  0.382469  0.245377  0.244778  -0.065367  -0.091159  
1.05442  1.06855  1.0681  0.487511  0.488416  0.835263  
0.833325  0.759132  0.758712  0.361254  0.361496  0.118242  
0.117842  0.57787  0.578329  0.93228  0.930526  0.893511  
0.887061  0.777936  0.777256  0.848967  0.851588  -0.0449156  
-0.0625085  1.02552  0.876316  0.276698  0.17738  0.17688  
0.340083  0.339599  0.277253  0.79608  0.797097  0.469867  
0.470887  1.07238  0.814905  0.816335  0.647676  0.647453  
-0.0497151  0.56356  0.562986  -0.00643833  -0.110706  -0.110083  
0.913352  0.910512  1.07433  0.318471  0.317854  0.156112  
0.155636  1.07502  0.229384  0.228645  1.05853  0.00370232  
0.00785536  -0.0995627  0.452602  0.451528  0.710715  0.71075  
-0.112035  0.963106  0.964003  0.0233273  0.0216843  0.297214  
0.296582  1.07155  0.0392277  0.0380337  0.679161  0.679284  
0.548292  0.547567  -0.104315  -0.0839641  -0.0361535  0.10468  
0.104156  -0.0154879  0.433533  0.432515  1.04191  1.03997  
1.02474  0.996021  1.00724  0.532252  0.531362  1.08041  
0.0715901  0.0705792  1.07626  0.412842  0.413637  0.263661  
0.262825  0.862736  0.866555  0.629829  0.629493  -0.111261  
0.728522  0.728679  0.992112  -0.124132  0.211406  0.210599  
-0.118747  0.514903  0.515976  1.07491  0.39248  0.392865  
-0.122031  0.0848981  0.0841054  0.945713  0.944112  -0.093895  
-0.116719  -0.102374  0.608567  0.609022  -0.0333256  0.13728  
0.136707  0.662583  0.66283  1.08595  0.371404  0.371252  
-0.120531  0.845745  0.848397  0.49809  0.499364  1.0121  
0.747718  0.747367  1.05561  0.191994  0.191184  -0.0198328  
0.696116  0.69619  0.0548261  0.0535547  -0.0733583  -0.0538988  
0.588508  0.589151  0.88249  0.349002  0.349668  -0.126621  
-0.053057  0.979227  0.978603  0.926333  0.923851  0.480643  
0.482125  0.247719  0.905814  0.903242  0.246618  0.76763  
0.827057  0.829098  0.766992  0.327503  -0.124422  0.326501  
0.171763  0.170987  0.282852  0.283881  -0.11418  0.100895  
0.100144  0.788101  0.787078  0.573823  0.573098  1.07121  
-0.0692683  1.08771  1.0878  0.305374  0.304265  0.464001  
0.46235  0.807253  0.808754  0.118567  0.119243  1.08977  
-0.129304  -0.12852  -0.120462  -0.0980391  1.0266  0.883556  
0.644666  0.644257  0.56032  0.559368  0.444994  0.443288  
1.05276  -0.00865115  0.714573  0.714606  0.227724  0.228972  
0.959646  0.960561  1.09027  0.15377  0.153022  1.09441  
1.03464  1.09063  0.543403  0.542226  0.425138  0.423586  
0.00460332  1.07385  0.0064459  0.0239743  0.0227799  1.01629  
0.679661  0.67989  0.0397688  0.038362  -0.0262558  -0.134437  
-0.0170732  1.0904  -0.1088  0.403213  0.404297  -0.13849  
0.99683  0.525579  0.526994  -0.141331  -0.0426059  1.0381  
-0.115682  0.996265  -0.0827911  0.624541  0.623924  0.734497  
0.734276  0.861382  0.8643  -0.143272  1.09863  0.268612  
0.267153  0.382065  0.382333  0.20712  0.940664  0.938208  
0.20838  -0.129372  -0.0409179  0.0721657  0.0706804  0.0924025  
0.0912783  0.508972  0.510651  -0.0865138  0.359345  0.360047  
-0.134833  1.09445  -0.138683  0.920045  0.91652  -0.0632797  
0.601786  0.602663  -0.0599839  0.186864  0.18566  0.139261  
0.138292  0.898093  0.841163  0.843902  0.337213  0.49203  
0.494012  0.335757  0.755575  0.755059  0.899127  -0.146425  
0.661309  0.661746  1.08497  -0.129428  1.01676  0.313963  
1.10569  0.31219  -0.14369  0.698559  0.698708  1.05503  
0.290987  0.28927  0.576946  0.578104  0.164474  0.163365  
-0.13666  0.473984  0.4763  0.820114  0.822271  -0.104891  
0.0515643  0.0497537  0.777526  0.776582  0.977118  0.979397  
1.10749  0.250172  -0.151141  0.248268  0.799931  0.798426  
1.06482  0.457255  0.454696  1.1043  0.115187  0.114175  
0.882323  1.11157  0.878626  1.109  1.04458  0.437498  
0.434893  0.555178  0.553594  -0.124254  0.641705  0.640993  
-0.150317  1.11085  1.10512  1.07505  -0.013597  1.02682  
-0.130974  -0.0365379  0.719187  0.954213  0.956279  0.71917  
-0.155196  0.41455  0.416839  0.224766  -0.142745  0.226658  
-0.158915  -0.0282876  0.537816  0.536059  1.00683  0.393488  
0.394829  0.680817  0.680419  0.0293004  0.0275688  0.00629619  
0.934796  0.930821  0.00583621  -0.104343  -0.160842  -0.0504935  
-0.00987915  0.618693  0.619764  0.52008  0.522278  0.275059  
0.272698  -0.159937  0.37146  0.371168  -0.0801077  1.03388  
0.20248  0.204311  1.11609  -0.0752816  0.995795  0.7414  
0.741097  0.857649  0.904974  0.861375  1.09932  -0.144334  
0.348157  -0.1495  0.913388  0.346233  0.503224  0.505657  
-0.15448  -0.153522  1.11975  0.15497  0.153455  -0.154079  
1.11714  0.323629  0.594335  0.59586  0.320882  0.178551  
0.180235  -0.12467  0.0677137  0.0699371  0.298785  -0.167874  
0.296038  1.09766  0.83517  0.838318  0.0927416  0.0910438  
0.487276  0.490298  0.129967  0.128564  -0.164338  0.894353  
0.764912  0.764167  1.078  0.660168  0.660898  -0.155221  
0.813973  0.811763  1.12691  0.701556  0.701826  1.05291  
0.466848  0.47036  0.789286  1.12688  0.787909  0.974084  
0.969674  1.0565  -0.0542695  -0.16651  -0.134174  0.56822  
0.570304  0.109432  0.10806  1.12084  0.0434504  0.0404787  
0.243269  0.240617  0.450543  0.446684  1.12336  -0.149098  
-0.101246  0.2607  1.01381  0.257808  0.989524  1.03113  
-0.171697  1.1322  1.1225  1.13474  -0.0222869  0.430271  
0.42635  0.881892  0.876785  0.947331  0.950056  0.639039  
0.637872  -0.177003  1.1339  -0.0150099  0.541628  0.538954  
-0.177264  -0.0364021  1.07563  0.40551  0.408936  -0.164458  
0.22471  0.221984  0.724724  0.72474  -0.180288  0.923649  
-0.0587821  0.928067  -0.161034  1.11473  0.383823  0.385221  
1.13458  -0.0881946  -0.180936  0.615281  0.613537  -0.174209  
0.360845  0.682154  0.358754  0.681501  0.280858  -0.141646  
0.277181  1.14201  0.0608755  0.0641047  0.507809  0.511386  
0.196431  0.19894  -0.0769977  0.00759473  0.0112821  0.33541  
0.17182  0.169591  1.0071  0.144083  0.142099  0.331098  
1.02593  0.852843  -0.171297  0.749764  0.749355  0.857838  
0.307925  -0.171626  0.996108  0.303519  1.09118  1.10036  
0.903776  -0.112978  -0.177444  -0.119449  0.587113  0.589602  
0.901687  0.830911  0.8276  0.116918  0.115081  -0.191062  
1.14304  0.984235  -0.185351  -0.155908  1.13701  0.479764  
0.484437  1.0702  -0.187206  0.776228  0.775173  -0.16817  
0.80349  0.801497  0.659197  0.660349  0.0345865  0.0291883  
1.14441  0.253956  0.24986  0.0932492  0.0956561  -0.0493757  
0.968616  0.963028  1.15125  -0.18598  0.463598  0.458601  
1.05113  1.04938  0.705213  0.705664  1.14864  0.558635  
0.562038  1.14663  0.438565  0.44444  1.1497  -0.194823  
-0.100778  1.15588  0.942457  -0.136059  0.938079  -0.0294646  
1.12734  0.417673  0.423422  1.13029  -0.179586  0.636766  
0.634961  0.883408  -0.200719  0.873442  1.02585  -0.195433  
-0.0757138  -0.159351  0.396897  0.40296  1.15847  -0.20138  
-0.189682  0.220989  0.217295  -0.101947  1.0758  0.533043  
0.5285  -0.202904  0.914647  0.731528  0.7316  -0.0191188  
0.374423  0.374475  1.10864  1.1593  0.18827  0.191499  
0.288461  1.15942  0.282646  0.351468  0.611261  0.608577  
0.057368  0.0536505  -0.20009  -0.128347  0.161166  0.158383  
0.344  1.00667  -0.203113  0.320108  -0.0757689  1.15675  
0.683785  0.68277  0.312769  -0.207405  0.129674  0.127218  
-0.198187  -0.168401  1.15264  1.00443  1.16958  0.846455  
0.851458  0.50293  0.496975  1.07515  0.987056  0.760131  
0.759594  1.02606  -0.188376  1.10238  1.158  -0.0558886  
0.583526  0.579693  0.080751  0.0836933  -0.211185  0.820772  
0.817978  0.790164  0.971228  0.788718  -0.00604166  0.00734481  
1.17039  0.891938  0.468444  0.46107  -0.215258  0.913913  
-0.203287  -0.209751  1.17024  0.658265  0.659976  -0.0475022  
1.17928  0.96576  1.17264  -0.199003  1.17638  1.13745  
1.0366  0.554792  0.549606  1.0496  0.0240624  0.0184027  
1.13153  -0.21747  0.709552  0.71026  0.242938  0.237578  
-0.179291  0.430548  0.420862  -0.102301  0.269459  0.263091  
1.18425  -0.221933  -0.125396  0.902015  0.934749  -0.0736828  
-0.0417748  0.632702  0.635324  -0.226919  -0.153264  -0.223287  
0.213766  0.209165  -0.149424  0.378841  0.868792  0.874603  
0.395107  0.52611  0.519223  -0.222528  0.935903  -0.224961  
0.997567  0.109762  0.112579  -0.231216  0.182249  0.178327  
0.298215  1.07484  -0.22709  -0.186173  0.288947  0.360613  
1.17331  1.18778  0.740178  -0.209572  0.740329  0.3389  
-0.0139682  -0.225889  1.1019  0.325957  1.18862  0.603846  
0.60778  0.0860005  0.0888055  0.147661  0.144416  1.17858  
-0.0772292  -0.237599  1.16327  1.18889  0.684818  0.683291  
0.899621  -0.101392  1.00103  -0.124665  0.773347  0.772665  
0.0490406  0.0464736  0.494701  0.485595  -0.234277  0.838107  
0.841571  0.807451  0.805608  1.19957  1.02466  1.10356  
1.06697  0.570747  0.576436  -0.220732  1.16495  0.263564  
0.256002  -0.239565  1.20071  -0.0202856  -0.200239  -0.244656  
1.19769  -0.243335  0.968309  0.447113  0.458893  0.657104  
0.659441  0.235745  0.229552  -0.134076  -0.0492365  1.20364  
0.902794  0.966757  1.21076  0.548347  0.541149  -0.24755  
-0.167858  1.13508  -0.106459  1.04423  0.714779  0.715827  
1.12895  -0.0652747  1.20521  -0.252803  -0.169078  0.405732  
1.20661  -0.206039  0.420771  -0.256987  1.20017  0.0101398  
0.00730247  1.03249  0.209088  -0.136238  0.203498  -0.231474  
-0.25289  0.637452  0.633918  -0.257676  -0.252258  0.381275  
1.20474  0.363385  1.22331  0.866655  0.863108  0.130027  
0.126633  0.523544  0.513754  0.321194  0.306402  -0.264979  
-0.25784  -0.252412  0.930851  0.34269  0.941736  1.00515  
0.165816  0.170282  1.16916  0.0760348  0.0776617  0.75221  
0.752423  1.09313  1.07258  1.22008  0.603482  0.597895  
-0.0232061  1.22153  -0.2656  0.285605  0.27525  -0.244349  
1.19263  0.992576  0.789609  0.790434  -0.0816634  0.826748  
0.828882  -0.258657  0.680224  0.677773  0.475596  0.488872  
1.22523  -0.223391  -0.107745  1.06159  0.249295  0.241134  
1.15581  0.552713  0.561517  1.1041  0.0363447  0.0372896  
1.22783  0.433889  -0.271611  0.892546  -0.271188  -0.278273  
-0.188869  0.450453  1.23139  1.23516  -0.0343415  -0.147207  
1.20594  -0.228054  -0.187187  -0.284101  -0.276538  1.22948  
-0.116074  -0.25637  1.24247  0.39029  0.897144  -0.0514987  
0.964706  0.108403  0.111364  -0.152223  -0.280058  -0.280436  
1.23533  1.11919  1.24534  -0.28286  1.03767  1.23451  
1.13801  0.726211  0.727445  0.408595  1.03547  -0.286808  
-0.29583  0.345291  1.24531  -0.077537  0.149525  0.145086  
0.295687  0.283454  1.2458  0.203163  0.196581  0.639255  
0.634731  0.321826  0.966436  0.359926  0.855249  0.852756  
-0.0112203  0.522472  0.508567  -0.301991  -0.2694  -0.00376907  
0.0698147  0.0696848  1.22104  1.0791  0.925139  0.769075  
0.768864  -0.293881  -0.293389  1.26169  -0.247084  1.1742  
1.07017  -0.29167  0.811399  0.812371  0.599316  0.591948  
1.25703  1.18277  0.930026  0.464907  0.999568  0.483818  
-0.0889894  -0.120649  1.26142  -0.21529  0.108051  0.110886  
1.00204  1.26664  0.704968  -0.252445  0.702781  -0.310721  
1.27588  1.14496  0.419872  -0.163993  1.21294  -0.208067  
1.26005  -0.283178  -0.307476  1.10433  0.673531  -0.0463797  
0.670172  0.883568  0.442256  1.26589  -0.173275  0.0278171  
0.022995  -0.130218  -0.309414  -0.317182  1.2669  0.373684  
1.269  0.252179  -0.315665  0.545489  0.55803  0.243179  
-0.314168  -0.326455  -0.314913  0.886568  1.11192  -0.0542581  
0.960169  0.327568  1.04427  1.03349  1.28423  -0.295777  
-0.322646  0.176746  0.965577  0.17039  0.742711  0.741477  
0.397191  1.14034  1.24924  -0.339697  -0.0905428  -0.330465  
-0.256329  1.28648  0.316557  0.84023  0.839142  0.0575571  
0.0602547  1.25501  1.28923  0.642368  0.637315  0.499371  
1.28977  0.519863  0.791247  1.2104  0.791063  0.139421  
0.144331  -0.335359  0.918586  0.21511  0.206629  0.288726  
1.17798  0.701487  0.279572  0.69883  -0.35159  -0.280258  
1.30339  -0.333234  -0.136379  0.584174  0.592148  0.452513  
-0.0142233  1.06796  -0.0186552  -0.342867  1.17019  1.2908  
-0.0996435  1.0869  1.2971  -0.314415  -0.232074  0.922658  
0.109378  0.112929  0.479685  1.3014  -0.183772  0.995488  
1.00739  -0.201798  0.351453  0.404241  1.30112  -0.150355  
-0.348307  -0.354319  1.1284  1.30431  -0.351953  1.30565  
1.21796  -0.0576077  1.31946  1.31202  -0.353913  0.00462305  
0.0176054  0.873048  1.10448  0.355074  -0.361166  1.31292  
0.434328  -0.327454  0.261201  0.536747  0.251501  0.553763  
-0.364273  1.27453  -0.294793  -0.368158  -0.37314  0.171736  
0.164068  0.874294  0.307136  1.05388  1.26199  0.956952  
0.762563  -0.0550206  0.76175  -0.10424  1.33721  1.23674  
1.02925  0.822229  -0.379871  0.822886  0.96461  0.303101  
0.386945  -0.388385  1.32921  1.14218  0.623041  0.617771  
-0.312571  -0.376893  1.33353  0.48854  0.664415  0.668784  
-0.236547  1.32121  -0.352601  0.522241  -0.383397  1.20063  
-0.259978  -0.154391  1.33962  0.0400396  0.0460347  0.912267  
-0.118317  -0.391263  1.33669  -0.206824  -0.400439  0.438616  
1.1794  1.10267  0.225832  0.213916  0.090962  0.0954848  
0.576479  -0.0227734  0.577272  1.34078  -0.178009  1.06514  
1.15233  1.34272  0.914821  1.3449  1.3111  0.476311  
-0.394101  0.386086  1.01334  1.34615  0.992786  -0.364647  
0.3452  1.35318  -0.397817  0.714712  0.716273  1.29989  
-0.410265  -0.33403  -0.409434  -0.404368  0.861706  -0.0670557  
1.21964  0.14118  0.133033  0.332072  0.278465  1.10605  
1.36181  1.36775  0.42413  0.527101  -0.273797  1.24726  
0.262568  -0.421339  0.859449  1.36607  0.806988  0.809739  
-0.422247  -0.0186471  -0.424672  0.00874299  1.36579  -0.416902  
-0.348972  -0.118805  1.06772  -0.0794702  -0.424393  1.266  
0.627095  0.186352  1.34977  -0.39385  0.635331  0.961861  
0.175634  0.754076  0.757618  0.369757  -0.439995  1.0198  
-0.292642  0.963491  1.37829  -0.2135  1.1439  0.31497  
1.39158  1.37347  0.691494  0.694939  0.477504  -0.175427  
-0.234169  -0.43555  0.527354  -0.146537  -0.450603  1.389  
1.18501  1.12545  0.0819455  0.072027  0.901112  -0.45002  
-0.435767  1.3867  1.3174  -0.403537  0.423366  1.38837  
0.24246  -0.375501  1.30481  1.39432  -0.453364  -0.0237118  
1.17383  0.566724  1.41123  1.39139  -0.44507  0.223105  
0.0198672  -0.462339  0.0268516  0.904311  1.06241  0.139737  
0.125172  0.851092  0.363636  0.470791  1.02216  -0.312601  
0.587979  -0.466547  0.302468  -0.0411954  -0.0745907  -0.460278  
0.834198  -0.456643  1.21774  -0.387931  -0.250192  -0.477216  
0.806256  -0.437288  1.38407  -0.479007  0.407158  1.11724  
0.517315  1.41644  1.37423  0.268919  -0.0962238  1.42592  
-0.330815  -0.480938  -0.136269  1.41282  1.08761  1.00658  
0.73505  0.720125  0.0607936  -0.462349  -0.194796  1.42633  
0.665627  0.660675  1.42669  1.22673  0.340506  -0.494221  
0.942854  -0.267795  1.26716  0.197594  -0.200994  0.194588  
1.43196  0.961163  0.607988  -0.444363  1.43145  1.15573  
-0.490878  0.530223  -0.495823  -0.419983  0.470741  -0.49778  
1.35098  1.45344  0.0713314  -0.501678  0.87658  0.77459  
1.43792  1.44021  1.44035  -0.492445  1.31913  0.264518  
-0.144218  -0.354204  0.404213  0.892504  -0.0129272  -0.517481  
-0.514608  -0.510437  1.16407  -0.0029469  0.54507  0.334161  
0.136408  -0.502255  1.45477  -0.426569  1.47587  1.45985  
1.27207  1.05878  -0.286704  1.03863  -0.482378  0.460119  
-0.068828  1.42728  0.597647  -0.521015  -0.0880182  -0.218533  
1.45609  -0.371446  0.776821  1.37737  0.138845  -0.522355  
-0.508687  1.21471  -0.534511  0.844005  0.378047  0.717819  
0.711671  1.49411  0.304478  0.993037  -0.158752  0.242442  
1.11441  1.19323  -0.314345  -0.543253  1.47638  0.840493  
-0.487297  0.635941  -0.232254  -0.558869  -0.554116  1.47963  
-0.535678  -0.468916  -0.551029  1.49311  1.39698  0.917408  
0.0346243  1.11047  1.49309  -0.562449  0.216663  0.918522  
1.26689  1.49072  0.0360042  0.656484  1.31782  0.537949  
1.49357  -0.400524  -0.562698  0.0943264  0.45761  1.49684  
1.44513  0.9876  0.188203  -0.541711  -0.470368  1.52205  
0.780082  0.294348  -0.179264  -0.103923  0.37637  -0.533726  
1.50877  -0.328667  1.23616  -0.563865  -0.0362944  1.31058  
1.47211  0.115133  -0.023346  -0.580606  -0.585788  1.50054  
-0.254706  -0.395976  1.14936  -0.572914  1.05742  1.52095  
1.06201  0.591778  0.415293  0.784502  1.54665  -0.108405  
1.15191  1.5307  0.25617  -0.589724  1.52044  0.612951  
0.34098  -0.536425  0.164637  -0.592279  1.37597  -0.601206  
-0.185427  1.52953  -0.522684  0.881143  0.481756  0.513215  
0.693905  1.44503  0.863836  -0.264782  1.22184  0.0520269  
0.969808  -0.61488  0.693513  -0.626892  -0.625776  1.5676  
1.54206  0.961214  1.36551  -0.453036  1.55188  0.0629725  
1.28215  1.55521  -0.519068  0.24315  -0.607947  -0.627484  
1.44892  1.5657  -0.335328  -0.632087  -0.136611  0.00798232  
1.55908  1.56478  -0.590528  0.545227  -0.377001  1.58609  
0.436617  1.51208  0.331861  -0.0699629  1.19695  1.54758  
-0.640642  -0.216175  0.182223  0.792274  -0.625269  -0.454725  
-0.0503575  0.116994  -0.297418  0.535352  1.11084  -0.655589  
-0.631503  1.59643  1.12191  1.30092  0.450271  -0.589963  
0.627426  0.839148  0.380687  -0.665565  -0.574394  1.56769  
-0.130674  0.646962  1.0295  0.311286  1.50271  -0.674948  
0.742285  1.5932  1.5294  0.128021  -0.39675  -0.00442933  
1.03514  0.934927  -0.21651  0.181092  -0.67687  1.62257  
-0.658577  0.886139  -0.687012  1.60282  1.60647  -0.692058  
-0.303349  1.41739  -0.514199  1.37148  -0.690113  0.223676  
0.718064  1.61862  -0.57099  -0.655393  1.33031  -0.678777  
-0.644468  1.61423  1.17316  0.0293496  1.24295  1.64602  
1.62836  -0.716808  1.59017  1.61747  -0.433411  1.62638  
-0.697  1.23541  -0.0803684  1.15474  -0.698241  0.27102  
-0.489717  -0.168474  0.0936834  0.97814  0.370252  1.44956  
-0.258967  -0.34734  0.59355  1.64416  -0.698213  0.492985  
0.472162  1.06632  0.571078  1.64281  0.810921  1.09432  
-0.647685  1.66937  -0.0635153  -0.740074  -0.731528  -0.598844  
1.63968  0.385528  0.65422  1.5718  0.896176  0.992879  
0.693946  0.795176  -0.746053  1.28874  1.53553  -0.159011  
1.67601  0.00266289  0.0991209  -0.745895  1.69248  0.183716  
-0.763571  0.280532  1.47621  -0.350573  -0.773698  -0.254704  
-0.628029  -0.731297  1.67261  -0.758392  1.19111  -0.704484  
-0.747126  0.909105  -0.445468  0.197922  -0.761092  1.38091  
0.729017  1.70118  1.2008  1.6681  1.28935  -0.501128  
-0.751732  1.3632  1.70643  1.68909  -0.549244  0.0214571  
1.69388  1.70521  1.10754  0.407771  0.11077  1.68521  
0.541253  -0.8118  -0.213128  0.302514  -0.103892  0.512037  
1.00891  -0.405931  1.62929  -0.708128  -0.309433  1.70342  
1.72768  1.71356  -0.8031  -0.673819  0.640348  1.04124  
0.441578  0.625043  1.44714  1.64651  -0.7951  -0.786913  
-0.0915077  0.959895  0.829689  -0.841971  0.74465  -0.834316  
-0.824265  1.72956  1.72883  1.75942  0.853991  1.1088  
1.54338  0.132907  1.7314  -0.662235  -0.801429  -0.400535  
0.340858  0.237692  -0.577107  -0.834118  -0.858696  -0.301284  
1.76139  -0.773164  -0.196532  0.00158562  1.26866  1.53858  
-0.8293  1.76383  1.43723  1.79044  1.74742  1.7604  
-0.484285  -0.84072  -0.886181  1.33115  1.24626  0.938909  
1.76052  -0.844058  1.16048  0.229281  -0.818714  1.05091  
0.450462  1.78843  -0.775802  0.735083  1.79162  -0.475126  
1.81841  0.339357  1.35192  1.16687  1.7819  -0.738293  
-0.87647  1.77255  0.545455  0.58659  -0.262156  -0.366965  
1.63739  -0.173887  0.491556  1.78074  1.72487  -0.91412  
1.04913  0.681117  -0.561677  -0.0264816  0.070053  0.0858566  
-0.648454  -0.906713  0.396426  -0.930253  -0.922717  1.81565  
1.61961  -0.748819  -0.0936345  -0.880317  1.44229  -0.924673  
0.924602  -0.88011  0.802227  -0.898933  -0.840198  -0.124946  
0.853328  0.184799  1.85087  0.302561  0.165668  -0.357198  
0.627501  -0.463202  -0.247399  -0.892022  1.82491  1.50489  
1.84283  1.82655  -0.930924  1.82489  1.8589  1.86643  
-0.962121  1.74502  -0.562675  -0.930168  1.24837  0.979041  